GRIDUNIT
  METRES /

SPECGRID
  51 51 41 /

COORD
  0 0 -0 
  0 0 -200 
  49.0196 0 -0 
  49.0196 0 -200 
  98.0392 0 -0 
  98.0392 0 -200 
  147.059 0 -0 
  147.059 0 -200 
  196.078 0 -0 
  196.078 0 -200 
  245.098 0 -0 
  245.098 0 -200 
  294.118 0 -0 
  294.118 0 -200 
  343.137 0 -0 
  343.137 0 -200 
  392.157 0 -0 
  392.157 0 -200 
  441.176 0 -0 
  441.176 0 -200 
  490.196 0 -0 
  490.196 0 -200 
  539.216 0 -0 
  539.216 0 -200 
  588.235 0 -0 
  588.235 0 -200 
  637.255 0 -0 
  637.255 0 -200 
  686.275 0 -0 
  686.275 0 -200 
  735.294 0 -0 
  735.294 0 -200 
  784.314 0 -0 
  784.314 0 -200 
  833.333 0 -0 
  833.333 0 -200 
  882.353 0 -0 
  882.353 0 -200 
  931.373 0 -0 
  931.373 0 -200 
  980.392 0 -0 
  980.392 0 -200 
  1029.41 0 -0 
  1029.41 0 -200 
  1078.43 0 -0 
  1078.43 0 -200 
  1127.45 0 -0 
  1127.45 0 -200 
  1176.47 0 -0 
  1176.47 0 -200 
  1225.49 0 -0 
  1225.49 0 -200 
  1274.51 0 -0 
  1274.51 0 -200 
  1323.53 0 -0 
  1323.53 0 -200 
  1372.55 0 -0 
  1372.55 0 -200 
  1421.57 0 -0 
  1421.57 0 -200 
  1470.59 0 -0 
  1470.59 0 -200 
  1519.61 0 -0 
  1519.61 0 -200 
  1568.63 0 -0 
  1568.63 0 -200 
  1617.65 0 -0 
  1617.65 0 -200 
  1666.67 0 -0 
  1666.67 0 -200 
  1715.69 0 -0 
  1715.69 0 -200 
  1764.71 0 -0 
  1764.71 0 -200 
  1813.73 0 -0 
  1813.73 0 -200 
  1862.75 0 -0 
  1862.75 0 -200 
  1911.76 0 -0 
  1911.76 0 -200 
  1960.78 0 -0 
  1960.78 0 -200 
  2009.8 0 -0 
  2009.8 0 -200 
  2058.82 0 -0 
  2058.82 0 -200 
  2107.84 0 -0 
  2107.84 0 -200 
  2156.86 0 -0 
  2156.86 0 -200 
  2205.88 0 -0 
  2205.88 0 -200 
  2254.9 0 -0 
  2254.9 0 -200 
  2303.92 0 -0 
  2303.92 0 -200 
  2352.94 0 -0 
  2352.94 0 -200 
  2401.96 0 -0 
  2401.96 0 -200 
  2450.98 0 -0 
  2450.98 0 -200 
  2500 0 -0 
  2500 0 -200 
  0 58.8235 -0 
  0 58.8235 -200 
  49.0196 58.8235 -0 
  49.0196 58.8235 -200 
  98.0392 58.8235 -0 
  98.0392 58.8235 -200 
  147.059 58.8235 -0 
  147.059 58.8235 -200 
  196.078 58.8235 -0 
  196.078 58.8235 -200 
  245.098 58.8235 -0 
  245.098 58.8235 -200 
  294.118 58.8235 -0 
  294.118 58.8235 -200 
  343.137 58.8235 -0 
  343.137 58.8235 -200 
  392.157 58.8235 -0 
  392.157 58.8235 -200 
  441.176 58.8235 -0 
  441.176 58.8235 -200 
  490.196 58.8235 -0 
  490.196 58.8235 -200 
  539.216 58.8235 -0 
  539.216 58.8235 -200 
  588.235 58.8235 -0 
  588.235 58.8235 -200 
  637.255 58.8235 -0 
  637.255 58.8235 -200 
  686.275 58.8235 -0 
  686.275 58.8235 -200 
  735.294 58.8235 -0 
  735.294 58.8235 -200 
  784.314 58.8235 -0 
  784.314 58.8235 -200 
  833.333 58.8235 -0 
  833.333 58.8235 -200 
  882.353 58.8235 -0 
  882.353 58.8235 -200 
  931.373 58.8235 -0 
  931.373 58.8235 -200 
  980.392 58.8235 -0 
  980.392 58.8235 -200 
  1029.41 58.8235 -0 
  1029.41 58.8235 -200 
  1078.43 58.8235 -0 
  1078.43 58.8235 -200 
  1127.45 58.8235 -0 
  1127.45 58.8235 -200 
  1176.47 58.8235 -0 
  1176.47 58.8235 -200 
  1225.49 58.8235 -0 
  1225.49 58.8235 -200 
  1274.51 58.8235 -0 
  1274.51 58.8235 -200 
  1323.53 58.8235 -0 
  1323.53 58.8235 -200 
  1372.55 58.8235 -0 
  1372.55 58.8235 -200 
  1421.57 58.8235 -0 
  1421.57 58.8235 -200 
  1470.59 58.8235 -0 
  1470.59 58.8235 -200 
  1519.61 58.8235 -0 
  1519.61 58.8235 -200 
  1568.63 58.8235 -0 
  1568.63 58.8235 -200 
  1617.65 58.8235 -0 
  1617.65 58.8235 -200 
  1666.67 58.8235 -0 
  1666.67 58.8235 -200 
  1715.69 58.8235 -0 
  1715.69 58.8235 -200 
  1764.71 58.8235 -0 
  1764.71 58.8235 -200 
  1813.73 58.8235 -0 
  1813.73 58.8235 -200 
  1862.75 58.8235 -0 
  1862.75 58.8235 -200 
  1911.76 58.8235 -0 
  1911.76 58.8235 -200 
  1960.78 58.8235 -0 
  1960.78 58.8235 -200 
  2009.8 58.8235 -0 
  2009.8 58.8235 -200 
  2058.82 58.8235 -0 
  2058.82 58.8235 -200 
  2107.84 58.8235 -0 
  2107.84 58.8235 -200 
  2156.86 58.8235 -0 
  2156.86 58.8235 -200 
  2205.88 58.8235 -0 
  2205.88 58.8235 -200 
  2254.9 58.8235 -0 
  2254.9 58.8235 -200 
  2303.92 58.8235 -0 
  2303.92 58.8235 -200 
  2352.94 58.8235 -0 
  2352.94 58.8235 -200 
  2401.96 58.8235 -0 
  2401.96 58.8235 -200 
  2450.98 58.8235 -0 
  2450.98 58.8235 -200 
  2500 58.8235 -0 
  2500 58.8235 -200 
  0 117.647 -0 
  0 117.647 -200 
  49.0196 117.647 -0 
  49.0196 117.647 -200 
  98.0392 117.647 -0 
  98.0392 117.647 -200 
  147.059 117.647 -0 
  147.059 117.647 -200 
  196.078 117.647 -0 
  196.078 117.647 -200 
  245.098 117.647 -0 
  245.098 117.647 -200 
  294.118 117.647 -0 
  294.118 117.647 -200 
  343.137 117.647 -0 
  343.137 117.647 -200 
  392.157 117.647 -0 
  392.157 117.647 -200 
  441.176 117.647 -0 
  441.176 117.647 -200 
  490.196 117.647 -0 
  490.196 117.647 -200 
  539.216 117.647 -0 
  539.216 117.647 -200 
  588.235 117.647 -0 
  588.235 117.647 -200 
  637.255 117.647 -0 
  637.255 117.647 -200 
  686.275 117.647 -0 
  686.275 117.647 -200 
  735.294 117.647 -0 
  735.294 117.647 -200 
  784.314 117.647 -0 
  784.314 117.647 -200 
  833.333 117.647 -0 
  833.333 117.647 -200 
  882.353 117.647 -0 
  882.353 117.647 -200 
  931.373 117.647 -0 
  931.373 117.647 -200 
  980.392 117.647 -0 
  980.392 117.647 -200 
  1029.41 117.647 -0 
  1029.41 117.647 -200 
  1078.43 117.647 -0 
  1078.43 117.647 -200 
  1127.45 117.647 -0 
  1127.45 117.647 -200 
  1176.47 117.647 -0 
  1176.47 117.647 -200 
  1225.49 117.647 -0 
  1225.49 117.647 -200 
  1274.51 117.647 -0 
  1274.51 117.647 -200 
  1323.53 117.647 -0 
  1323.53 117.647 -200 
  1372.55 117.647 -0 
  1372.55 117.647 -200 
  1421.57 117.647 -0 
  1421.57 117.647 -200 
  1470.59 117.647 -0 
  1470.59 117.647 -200 
  1519.61 117.647 -0 
  1519.61 117.647 -200 
  1568.63 117.647 -0 
  1568.63 117.647 -200 
  1617.65 117.647 -0 
  1617.65 117.647 -200 
  1666.67 117.647 -0 
  1666.67 117.647 -200 
  1715.69 117.647 -0 
  1715.69 117.647 -200 
  1764.71 117.647 -0 
  1764.71 117.647 -200 
  1813.73 117.647 -0 
  1813.73 117.647 -200 
  1862.75 117.647 -0 
  1862.75 117.647 -200 
  1911.76 117.647 -0 
  1911.76 117.647 -200 
  1960.78 117.647 -0 
  1960.78 117.647 -200 
  2009.8 117.647 -0 
  2009.8 117.647 -200 
  2058.82 117.647 -0 
  2058.82 117.647 -200 
  2107.84 117.647 -0 
  2107.84 117.647 -200 
  2156.86 117.647 -0 
  2156.86 117.647 -200 
  2205.88 117.647 -0 
  2205.88 117.647 -200 
  2254.9 117.647 -0 
  2254.9 117.647 -200 
  2303.92 117.647 -0 
  2303.92 117.647 -200 
  2352.94 117.647 -0 
  2352.94 117.647 -200 
  2401.96 117.647 -0 
  2401.96 117.647 -200 
  2450.98 117.647 -0 
  2450.98 117.647 -200 
  2500 117.647 -0 
  2500 117.647 -200 
  0 176.471 -0 
  0 176.471 -200 
  49.0196 176.471 -0 
  49.0196 176.471 -200 
  98.0392 176.471 -0 
  98.0392 176.471 -200 
  147.059 176.471 -0 
  147.059 176.471 -200 
  196.078 176.471 -0 
  196.078 176.471 -200 
  245.098 176.471 -0 
  245.098 176.471 -200 
  294.118 176.471 -0 
  294.118 176.471 -200 
  343.137 176.471 -0 
  343.137 176.471 -200 
  392.157 176.471 -0 
  392.157 176.471 -200 
  441.176 176.471 -0 
  441.176 176.471 -200 
  490.196 176.471 -0 
  490.196 176.471 -200 
  539.216 176.471 -0 
  539.216 176.471 -200 
  588.235 176.471 -0 
  588.235 176.471 -200 
  637.255 176.471 -0 
  637.255 176.471 -200 
  686.275 176.471 -0 
  686.275 176.471 -200 
  735.294 176.471 -0 
  735.294 176.471 -200 
  784.314 176.471 -0 
  784.314 176.471 -200 
  833.333 176.471 -0 
  833.333 176.471 -200 
  882.353 176.471 -0 
  882.353 176.471 -200 
  931.373 176.471 -0 
  931.373 176.471 -200 
  980.392 176.471 -0 
  980.392 176.471 -200 
  1029.41 176.471 -0 
  1029.41 176.471 -200 
  1078.43 176.471 -0 
  1078.43 176.471 -200 
  1127.45 176.471 -0 
  1127.45 176.471 -200 
  1176.47 176.471 -0 
  1176.47 176.471 -200 
  1225.49 176.471 -0 
  1225.49 176.471 -200 
  1274.51 176.471 -0 
  1274.51 176.471 -200 
  1323.53 176.471 -0 
  1323.53 176.471 -200 
  1372.55 176.471 -0 
  1372.55 176.471 -200 
  1421.57 176.471 -0 
  1421.57 176.471 -200 
  1470.59 176.471 -0 
  1470.59 176.471 -200 
  1519.61 176.471 -0 
  1519.61 176.471 -200 
  1568.63 176.471 -0 
  1568.63 176.471 -200 
  1617.65 176.471 -0 
  1617.65 176.471 -200 
  1666.67 176.471 -0 
  1666.67 176.471 -200 
  1715.69 176.471 -0 
  1715.69 176.471 -200 
  1764.71 176.471 -0 
  1764.71 176.471 -200 
  1813.73 176.471 -0 
  1813.73 176.471 -200 
  1862.75 176.471 -0 
  1862.75 176.471 -200 
  1911.76 176.471 -0 
  1911.76 176.471 -200 
  1960.78 176.471 -0 
  1960.78 176.471 -200 
  2009.8 176.471 -0 
  2009.8 176.471 -200 
  2058.82 176.471 -0 
  2058.82 176.471 -200 
  2107.84 176.471 -0 
  2107.84 176.471 -200 
  2156.86 176.471 -0 
  2156.86 176.471 -200 
  2205.88 176.471 -0 
  2205.88 176.471 -200 
  2254.9 176.471 -0 
  2254.9 176.471 -200 
  2303.92 176.471 -0 
  2303.92 176.471 -200 
  2352.94 176.471 -0 
  2352.94 176.471 -200 
  2401.96 176.471 -0 
  2401.96 176.471 -200 
  2450.98 176.471 -0 
  2450.98 176.471 -200 
  2500 176.471 -0 
  2500 176.471 -200 
  0 235.294 -0 
  0 235.294 -200 
  49.0196 235.294 -0 
  49.0196 235.294 -200 
  98.0392 235.294 -0 
  98.0392 235.294 -200 
  147.059 235.294 -0 
  147.059 235.294 -200 
  196.078 235.294 -0 
  196.078 235.294 -200 
  245.098 235.294 -0 
  245.098 235.294 -200 
  294.118 235.294 -0 
  294.118 235.294 -200 
  343.137 235.294 -0 
  343.137 235.294 -200 
  392.157 235.294 -0 
  392.157 235.294 -200 
  441.176 235.294 -0 
  441.176 235.294 -200 
  490.196 235.294 -0 
  490.196 235.294 -200 
  539.216 235.294 -0 
  539.216 235.294 -200 
  588.235 235.294 -0 
  588.235 235.294 -200 
  637.255 235.294 -0 
  637.255 235.294 -200 
  686.275 235.294 -0 
  686.275 235.294 -200 
  735.294 235.294 -0 
  735.294 235.294 -200 
  784.314 235.294 -0 
  784.314 235.294 -200 
  833.333 235.294 -0 
  833.333 235.294 -200 
  882.353 235.294 -0 
  882.353 235.294 -200 
  931.373 235.294 -0 
  931.373 235.294 -200 
  980.392 235.294 -0 
  980.392 235.294 -200 
  1029.41 235.294 -0 
  1029.41 235.294 -200 
  1078.43 235.294 -0 
  1078.43 235.294 -200 
  1127.45 235.294 -0 
  1127.45 235.294 -200 
  1176.47 235.294 -0 
  1176.47 235.294 -200 
  1225.49 235.294 -0 
  1225.49 235.294 -200 
  1274.51 235.294 -0 
  1274.51 235.294 -200 
  1323.53 235.294 -0 
  1323.53 235.294 -200 
  1372.55 235.294 -0 
  1372.55 235.294 -200 
  1421.57 235.294 -0 
  1421.57 235.294 -200 
  1470.59 235.294 -0 
  1470.59 235.294 -200 
  1519.61 235.294 -0 
  1519.61 235.294 -200 
  1568.63 235.294 -0 
  1568.63 235.294 -200 
  1617.65 235.294 -0 
  1617.65 235.294 -200 
  1666.67 235.294 -0 
  1666.67 235.294 -200 
  1715.69 235.294 -0 
  1715.69 235.294 -200 
  1764.71 235.294 -0 
  1764.71 235.294 -200 
  1813.73 235.294 -0 
  1813.73 235.294 -200 
  1862.75 235.294 -0 
  1862.75 235.294 -200 
  1911.76 235.294 -0 
  1911.76 235.294 -200 
  1960.78 235.294 -0 
  1960.78 235.294 -200 
  2009.8 235.294 -0 
  2009.8 235.294 -200 
  2058.82 235.294 -0 
  2058.82 235.294 -200 
  2107.84 235.294 -0 
  2107.84 235.294 -200 
  2156.86 235.294 -0 
  2156.86 235.294 -200 
  2205.88 235.294 -0 
  2205.88 235.294 -200 
  2254.9 235.294 -0 
  2254.9 235.294 -200 
  2303.92 235.294 -0 
  2303.92 235.294 -200 
  2352.94 235.294 -0 
  2352.94 235.294 -200 
  2401.96 235.294 -0 
  2401.96 235.294 -200 
  2450.98 235.294 -0 
  2450.98 235.294 -200 
  2500 235.294 -0 
  2500 235.294 -200 
  0 294.118 -0 
  0 294.118 -200 
  49.0196 294.118 -0 
  49.0196 294.118 -200 
  98.0392 294.118 -0 
  98.0392 294.118 -200 
  147.059 294.118 -0 
  147.059 294.118 -200 
  196.078 294.118 -0 
  196.078 294.118 -200 
  245.098 294.118 -0 
  245.098 294.118 -200 
  294.118 294.118 -0 
  294.118 294.118 -200 
  343.137 294.118 -0 
  343.137 294.118 -200 
  392.157 294.118 -0 
  392.157 294.118 -200 
  441.176 294.118 -0 
  441.176 294.118 -200 
  490.196 294.118 -0 
  490.196 294.118 -200 
  539.216 294.118 -0 
  539.216 294.118 -200 
  588.235 294.118 -0 
  588.235 294.118 -200 
  637.255 294.118 -0 
  637.255 294.118 -200 
  686.275 294.118 -0 
  686.275 294.118 -200 
  735.294 294.118 -0 
  735.294 294.118 -200 
  784.314 294.118 -0 
  784.314 294.118 -200 
  833.333 294.118 -0 
  833.333 294.118 -200 
  882.353 294.118 -0 
  882.353 294.118 -200 
  931.373 294.118 -0 
  931.373 294.118 -200 
  980.392 294.118 -0 
  980.392 294.118 -200 
  1029.41 294.118 -0 
  1029.41 294.118 -200 
  1078.43 294.118 -0 
  1078.43 294.118 -200 
  1127.45 294.118 -0 
  1127.45 294.118 -200 
  1176.47 294.118 -0 
  1176.47 294.118 -200 
  1225.49 294.118 -0 
  1225.49 294.118 -200 
  1274.51 294.118 -0 
  1274.51 294.118 -200 
  1323.53 294.118 -0 
  1323.53 294.118 -200 
  1372.55 294.118 -0 
  1372.55 294.118 -200 
  1421.57 294.118 -0 
  1421.57 294.118 -200 
  1470.59 294.118 -0 
  1470.59 294.118 -200 
  1519.61 294.118 -0 
  1519.61 294.118 -200 
  1568.63 294.118 -0 
  1568.63 294.118 -200 
  1617.65 294.118 -0 
  1617.65 294.118 -200 
  1666.67 294.118 -0 
  1666.67 294.118 -200 
  1715.69 294.118 -0 
  1715.69 294.118 -200 
  1764.71 294.118 -0 
  1764.71 294.118 -200 
  1813.73 294.118 -0 
  1813.73 294.118 -200 
  1862.75 294.118 -0 
  1862.75 294.118 -200 
  1911.76 294.118 -0 
  1911.76 294.118 -200 
  1960.78 294.118 -0 
  1960.78 294.118 -200 
  2009.8 294.118 -0 
  2009.8 294.118 -200 
  2058.82 294.118 -0 
  2058.82 294.118 -200 
  2107.84 294.118 -0 
  2107.84 294.118 -200 
  2156.86 294.118 -0 
  2156.86 294.118 -200 
  2205.88 294.118 -0 
  2205.88 294.118 -200 
  2254.9 294.118 -0 
  2254.9 294.118 -200 
  2303.92 294.118 -0 
  2303.92 294.118 -200 
  2352.94 294.118 -0 
  2352.94 294.118 -200 
  2401.96 294.118 -0 
  2401.96 294.118 -200 
  2450.98 294.118 -0 
  2450.98 294.118 -200 
  2500 294.118 -0 
  2500 294.118 -200 
  0 352.941 -0 
  0 352.941 -200 
  49.0196 352.941 -0 
  49.0196 352.941 -200 
  98.0392 352.941 -0 
  98.0392 352.941 -200 
  147.059 352.941 -0 
  147.059 352.941 -200 
  196.078 352.941 -0 
  196.078 352.941 -200 
  245.098 352.941 -0 
  245.098 352.941 -200 
  294.118 352.941 -0 
  294.118 352.941 -200 
  343.137 352.941 -0 
  343.137 352.941 -200 
  392.157 352.941 -0 
  392.157 352.941 -200 
  441.176 352.941 -0 
  441.176 352.941 -200 
  490.196 352.941 -0 
  490.196 352.941 -200 
  539.216 352.941 -0 
  539.216 352.941 -200 
  588.235 352.941 -0 
  588.235 352.941 -200 
  637.255 352.941 -0 
  637.255 352.941 -200 
  686.275 352.941 -0 
  686.275 352.941 -200 
  735.294 352.941 -0 
  735.294 352.941 -200 
  784.314 352.941 -0 
  784.314 352.941 -200 
  833.333 352.941 -0 
  833.333 352.941 -200 
  882.353 352.941 -0 
  882.353 352.941 -200 
  931.373 352.941 -0 
  931.373 352.941 -200 
  980.392 352.941 -0 
  980.392 352.941 -200 
  1029.41 352.941 -0 
  1029.41 352.941 -200 
  1078.43 352.941 -0 
  1078.43 352.941 -200 
  1127.45 352.941 -0 
  1127.45 352.941 -200 
  1176.47 352.941 -0 
  1176.47 352.941 -200 
  1225.49 352.941 -0 
  1225.49 352.941 -200 
  1274.51 352.941 -0 
  1274.51 352.941 -200 
  1323.53 352.941 -0 
  1323.53 352.941 -200 
  1372.55 352.941 -0 
  1372.55 352.941 -200 
  1421.57 352.941 -0 
  1421.57 352.941 -200 
  1470.59 352.941 -0 
  1470.59 352.941 -200 
  1519.61 352.941 -0 
  1519.61 352.941 -200 
  1568.63 352.941 -0 
  1568.63 352.941 -200 
  1617.65 352.941 -0 
  1617.65 352.941 -200 
  1666.67 352.941 -0 
  1666.67 352.941 -200 
  1715.69 352.941 -0 
  1715.69 352.941 -200 
  1764.71 352.941 -0 
  1764.71 352.941 -200 
  1813.73 352.941 -0 
  1813.73 352.941 -200 
  1862.75 352.941 -0 
  1862.75 352.941 -200 
  1911.76 352.941 -0 
  1911.76 352.941 -200 
  1960.78 352.941 -0 
  1960.78 352.941 -200 
  2009.8 352.941 -0 
  2009.8 352.941 -200 
  2058.82 352.941 -0 
  2058.82 352.941 -200 
  2107.84 352.941 -0 
  2107.84 352.941 -200 
  2156.86 352.941 -0 
  2156.86 352.941 -200 
  2205.88 352.941 -0 
  2205.88 352.941 -200 
  2254.9 352.941 -0 
  2254.9 352.941 -200 
  2303.92 352.941 -0 
  2303.92 352.941 -200 
  2352.94 352.941 -0 
  2352.94 352.941 -200 
  2401.96 352.941 -0 
  2401.96 352.941 -200 
  2450.98 352.941 -0 
  2450.98 352.941 -200 
  2500 352.941 -0 
  2500 352.941 -200 
  0 411.765 -0 
  0 411.765 -200 
  49.0196 411.765 -0 
  49.0196 411.765 -200 
  98.0392 411.765 -0 
  98.0392 411.765 -200 
  147.059 411.765 -0 
  147.059 411.765 -200 
  196.078 411.765 -0 
  196.078 411.765 -200 
  245.098 411.765 -0 
  245.098 411.765 -200 
  294.118 411.765 -0 
  294.118 411.765 -200 
  343.137 411.765 -0 
  343.137 411.765 -200 
  392.157 411.765 -0 
  392.157 411.765 -200 
  441.176 411.765 -0 
  441.176 411.765 -200 
  490.196 411.765 -0 
  490.196 411.765 -200 
  539.216 411.765 -0 
  539.216 411.765 -200 
  588.235 411.765 -0 
  588.235 411.765 -200 
  637.255 411.765 -0 
  637.255 411.765 -200 
  686.275 411.765 -0 
  686.275 411.765 -200 
  735.294 411.765 -0 
  735.294 411.765 -200 
  784.314 411.765 -0 
  784.314 411.765 -200 
  833.333 411.765 -0 
  833.333 411.765 -200 
  882.353 411.765 -0 
  882.353 411.765 -200 
  931.373 411.765 -0 
  931.373 411.765 -200 
  980.392 411.765 -0 
  980.392 411.765 -200 
  1029.41 411.765 -0 
  1029.41 411.765 -200 
  1078.43 411.765 -0 
  1078.43 411.765 -200 
  1127.45 411.765 -0 
  1127.45 411.765 -200 
  1176.47 411.765 -0 
  1176.47 411.765 -200 
  1225.49 411.765 -0 
  1225.49 411.765 -200 
  1274.51 411.765 -0 
  1274.51 411.765 -200 
  1323.53 411.765 -0 
  1323.53 411.765 -200 
  1372.55 411.765 -0 
  1372.55 411.765 -200 
  1421.57 411.765 -0 
  1421.57 411.765 -200 
  1470.59 411.765 -0 
  1470.59 411.765 -200 
  1519.61 411.765 -0 
  1519.61 411.765 -200 
  1568.63 411.765 -0 
  1568.63 411.765 -200 
  1617.65 411.765 -0 
  1617.65 411.765 -200 
  1666.67 411.765 -0 
  1666.67 411.765 -200 
  1715.69 411.765 -0 
  1715.69 411.765 -200 
  1764.71 411.765 -0 
  1764.71 411.765 -200 
  1813.73 411.765 -0 
  1813.73 411.765 -200 
  1862.75 411.765 -0 
  1862.75 411.765 -200 
  1911.76 411.765 -0 
  1911.76 411.765 -200 
  1960.78 411.765 -0 
  1960.78 411.765 -200 
  2009.8 411.765 -0 
  2009.8 411.765 -200 
  2058.82 411.765 -0 
  2058.82 411.765 -200 
  2107.84 411.765 -0 
  2107.84 411.765 -200 
  2156.86 411.765 -0 
  2156.86 411.765 -200 
  2205.88 411.765 -0 
  2205.88 411.765 -200 
  2254.9 411.765 -0 
  2254.9 411.765 -200 
  2303.92 411.765 -0 
  2303.92 411.765 -200 
  2352.94 411.765 -0 
  2352.94 411.765 -200 
  2401.96 411.765 -0 
  2401.96 411.765 -200 
  2450.98 411.765 -0 
  2450.98 411.765 -200 
  2500 411.765 -0 
  2500 411.765 -200 
  0 470.588 -0 
  0 470.588 -200 
  49.0196 470.588 -0 
  49.0196 470.588 -200 
  98.0392 470.588 -0 
  98.0392 470.588 -200 
  147.059 470.588 -0 
  147.059 470.588 -200 
  196.078 470.588 -0 
  196.078 470.588 -200 
  245.098 470.588 -0 
  245.098 470.588 -200 
  294.118 470.588 -0 
  294.118 470.588 -200 
  343.137 470.588 -0 
  343.137 470.588 -200 
  392.157 470.588 -0 
  392.157 470.588 -200 
  441.176 470.588 -0 
  441.176 470.588 -200 
  490.196 470.588 -0 
  490.196 470.588 -200 
  539.216 470.588 -0 
  539.216 470.588 -200 
  588.235 470.588 -0 
  588.235 470.588 -200 
  637.255 470.588 -0 
  637.255 470.588 -200 
  686.275 470.588 -0 
  686.275 470.588 -200 
  735.294 470.588 -0 
  735.294 470.588 -200 
  784.314 470.588 -0 
  784.314 470.588 -200 
  833.333 470.588 -0 
  833.333 470.588 -200 
  882.353 470.588 -0 
  882.353 470.588 -200 
  931.373 470.588 -0 
  931.373 470.588 -200 
  980.392 470.588 -0 
  980.392 470.588 -200 
  1029.41 470.588 -0 
  1029.41 470.588 -200 
  1078.43 470.588 -0 
  1078.43 470.588 -200 
  1127.45 470.588 -0 
  1127.45 470.588 -200 
  1176.47 470.588 -0 
  1176.47 470.588 -200 
  1225.49 470.588 -0 
  1225.49 470.588 -200 
  1274.51 470.588 -0 
  1274.51 470.588 -200 
  1323.53 470.588 -0 
  1323.53 470.588 -200 
  1372.55 470.588 -0 
  1372.55 470.588 -200 
  1421.57 470.588 -0 
  1421.57 470.588 -200 
  1470.59 470.588 -0 
  1470.59 470.588 -200 
  1519.61 470.588 -0 
  1519.61 470.588 -200 
  1568.63 470.588 -0 
  1568.63 470.588 -200 
  1617.65 470.588 -0 
  1617.65 470.588 -200 
  1666.67 470.588 -0 
  1666.67 470.588 -200 
  1715.69 470.588 -0 
  1715.69 470.588 -200 
  1764.71 470.588 -0 
  1764.71 470.588 -200 
  1813.73 470.588 -0 
  1813.73 470.588 -200 
  1862.75 470.588 -0 
  1862.75 470.588 -200 
  1911.76 470.588 -0 
  1911.76 470.588 -200 
  1960.78 470.588 -0 
  1960.78 470.588 -200 
  2009.8 470.588 -0 
  2009.8 470.588 -200 
  2058.82 470.588 -0 
  2058.82 470.588 -200 
  2107.84 470.588 -0 
  2107.84 470.588 -200 
  2156.86 470.588 -0 
  2156.86 470.588 -200 
  2205.88 470.588 -0 
  2205.88 470.588 -200 
  2254.9 470.588 -0 
  2254.9 470.588 -200 
  2303.92 470.588 -0 
  2303.92 470.588 -200 
  2352.94 470.588 -0 
  2352.94 470.588 -200 
  2401.96 470.588 -0 
  2401.96 470.588 -200 
  2450.98 470.588 -0 
  2450.98 470.588 -200 
  2500 470.588 -0 
  2500 470.588 -200 
  0 529.412 -0 
  0 529.412 -200 
  49.0196 529.412 -0 
  49.0196 529.412 -200 
  98.0392 529.412 -0 
  98.0392 529.412 -200 
  147.059 529.412 -0 
  147.059 529.412 -200 
  196.078 529.412 -0 
  196.078 529.412 -200 
  245.098 529.412 -0 
  245.098 529.412 -200 
  294.118 529.412 -0 
  294.118 529.412 -200 
  343.137 529.412 -0 
  343.137 529.412 -200 
  392.157 529.412 -0 
  392.157 529.412 -200 
  441.176 529.412 -0 
  441.176 529.412 -200 
  490.196 529.412 -0 
  490.196 529.412 -200 
  539.216 529.412 -0 
  539.216 529.412 -200 
  588.235 529.412 -0 
  588.235 529.412 -200 
  637.255 529.412 -0 
  637.255 529.412 -200 
  686.275 529.412 -0 
  686.275 529.412 -200 
  735.294 529.412 -0 
  735.294 529.412 -200 
  784.314 529.412 -0 
  784.314 529.412 -200 
  833.333 529.412 -0 
  833.333 529.412 -200 
  882.353 529.412 -0 
  882.353 529.412 -200 
  931.373 529.412 -0 
  931.373 529.412 -200 
  980.392 529.412 -0 
  980.392 529.412 -200 
  1029.41 529.412 -0 
  1029.41 529.412 -200 
  1078.43 529.412 -0 
  1078.43 529.412 -200 
  1127.45 529.412 -0 
  1127.45 529.412 -200 
  1176.47 529.412 -0 
  1176.47 529.412 -200 
  1225.49 529.412 -0 
  1225.49 529.412 -200 
  1274.51 529.412 -0 
  1274.51 529.412 -200 
  1323.53 529.412 -0 
  1323.53 529.412 -200 
  1372.55 529.412 -0 
  1372.55 529.412 -200 
  1421.57 529.412 -0 
  1421.57 529.412 -200 
  1470.59 529.412 -0 
  1470.59 529.412 -200 
  1519.61 529.412 -0 
  1519.61 529.412 -200 
  1568.63 529.412 -0 
  1568.63 529.412 -200 
  1617.65 529.412 -0 
  1617.65 529.412 -200 
  1666.67 529.412 -0 
  1666.67 529.412 -200 
  1715.69 529.412 -0 
  1715.69 529.412 -200 
  1764.71 529.412 -0 
  1764.71 529.412 -200 
  1813.73 529.412 -0 
  1813.73 529.412 -200 
  1862.75 529.412 -0 
  1862.75 529.412 -200 
  1911.76 529.412 -0 
  1911.76 529.412 -200 
  1960.78 529.412 -0 
  1960.78 529.412 -200 
  2009.8 529.412 -0 
  2009.8 529.412 -200 
  2058.82 529.412 -0 
  2058.82 529.412 -200 
  2107.84 529.412 -0 
  2107.84 529.412 -200 
  2156.86 529.412 -0 
  2156.86 529.412 -200 
  2205.88 529.412 -0 
  2205.88 529.412 -200 
  2254.9 529.412 -0 
  2254.9 529.412 -200 
  2303.92 529.412 -0 
  2303.92 529.412 -200 
  2352.94 529.412 -0 
  2352.94 529.412 -200 
  2401.96 529.412 -0 
  2401.96 529.412 -200 
  2450.98 529.412 -0 
  2450.98 529.412 -200 
  2500 529.412 -0 
  2500 529.412 -200 
  0 588.235 -0 
  0 588.235 -200 
  49.0196 588.235 -0 
  49.0196 588.235 -200 
  98.0392 588.235 -0 
  98.0392 588.235 -200 
  147.059 588.235 -0 
  147.059 588.235 -200 
  196.078 588.235 -0 
  196.078 588.235 -200 
  245.098 588.235 -0 
  245.098 588.235 -200 
  294.118 588.235 -0 
  294.118 588.235 -200 
  343.137 588.235 -0 
  343.137 588.235 -200 
  392.157 588.235 -0 
  392.157 588.235 -200 
  441.176 588.235 -0 
  441.176 588.235 -200 
  490.196 588.235 -0 
  490.196 588.235 -200 
  539.216 588.235 -0 
  539.216 588.235 -200 
  588.235 588.235 -0 
  588.235 588.235 -200 
  637.255 588.235 -0 
  637.255 588.235 -200 
  686.275 588.235 -0 
  686.275 588.235 -200 
  735.294 588.235 -0 
  735.294 588.235 -200 
  784.314 588.235 -0 
  784.314 588.235 -200 
  833.333 588.235 -0 
  833.333 588.235 -200 
  882.353 588.235 -0 
  882.353 588.235 -200 
  931.373 588.235 -0 
  931.373 588.235 -200 
  980.392 588.235 -0 
  980.392 588.235 -200 
  1029.41 588.235 -0 
  1029.41 588.235 -200 
  1078.43 588.235 -0 
  1078.43 588.235 -200 
  1127.45 588.235 -0 
  1127.45 588.235 -200 
  1176.47 588.235 -0 
  1176.47 588.235 -200 
  1225.49 588.235 -0 
  1225.49 588.235 -200 
  1274.51 588.235 -0 
  1274.51 588.235 -200 
  1323.53 588.235 -0 
  1323.53 588.235 -200 
  1372.55 588.235 -0 
  1372.55 588.235 -200 
  1421.57 588.235 -0 
  1421.57 588.235 -200 
  1470.59 588.235 -0 
  1470.59 588.235 -200 
  1519.61 588.235 -0 
  1519.61 588.235 -200 
  1568.63 588.235 -0 
  1568.63 588.235 -200 
  1617.65 588.235 -0 
  1617.65 588.235 -200 
  1666.67 588.235 -0 
  1666.67 588.235 -200 
  1715.69 588.235 -0 
  1715.69 588.235 -200 
  1764.71 588.235 -0 
  1764.71 588.235 -200 
  1813.73 588.235 -0 
  1813.73 588.235 -200 
  1862.75 588.235 -0 
  1862.75 588.235 -200 
  1911.76 588.235 -0 
  1911.76 588.235 -200 
  1960.78 588.235 -0 
  1960.78 588.235 -200 
  2009.8 588.235 -0 
  2009.8 588.235 -200 
  2058.82 588.235 -0 
  2058.82 588.235 -200 
  2107.84 588.235 -0 
  2107.84 588.235 -200 
  2156.86 588.235 -0 
  2156.86 588.235 -200 
  2205.88 588.235 -0 
  2205.88 588.235 -200 
  2254.9 588.235 -0 
  2254.9 588.235 -200 
  2303.92 588.235 -0 
  2303.92 588.235 -200 
  2352.94 588.235 -0 
  2352.94 588.235 -200 
  2401.96 588.235 -0 
  2401.96 588.235 -200 
  2450.98 588.235 -0 
  2450.98 588.235 -200 
  2500 588.235 -0 
  2500 588.235 -200 
  0 647.059 -0 
  0 647.059 -200 
  49.0196 647.059 -0 
  49.0196 647.059 -200 
  98.0392 647.059 -0 
  98.0392 647.059 -200 
  147.059 647.059 -0 
  147.059 647.059 -200 
  196.078 647.059 -0 
  196.078 647.059 -200 
  245.098 647.059 -0 
  245.098 647.059 -200 
  294.118 647.059 -0 
  294.118 647.059 -200 
  343.137 647.059 -0 
  343.137 647.059 -200 
  392.157 647.059 -0 
  392.157 647.059 -200 
  441.176 647.059 -0 
  441.176 647.059 -200 
  490.196 647.059 -0 
  490.196 647.059 -200 
  539.216 647.059 -0 
  539.216 647.059 -200 
  588.235 647.059 -0 
  588.235 647.059 -200 
  637.255 647.059 -0 
  637.255 647.059 -200 
  686.275 647.059 -0 
  686.275 647.059 -200 
  735.294 647.059 -0 
  735.294 647.059 -200 
  784.314 647.059 -0 
  784.314 647.059 -200 
  833.333 647.059 -0 
  833.333 647.059 -200 
  882.353 647.059 -0 
  882.353 647.059 -200 
  931.373 647.059 -0 
  931.373 647.059 -200 
  980.392 647.059 -0 
  980.392 647.059 -200 
  1029.41 647.059 -0 
  1029.41 647.059 -200 
  1078.43 647.059 -0 
  1078.43 647.059 -200 
  1127.45 647.059 -0 
  1127.45 647.059 -200 
  1176.47 647.059 -0 
  1176.47 647.059 -200 
  1225.49 647.059 -0 
  1225.49 647.059 -200 
  1274.51 647.059 -0 
  1274.51 647.059 -200 
  1323.53 647.059 -0 
  1323.53 647.059 -200 
  1372.55 647.059 -0 
  1372.55 647.059 -200 
  1421.57 647.059 -0 
  1421.57 647.059 -200 
  1470.59 647.059 -0 
  1470.59 647.059 -200 
  1519.61 647.059 -0 
  1519.61 647.059 -200 
  1568.63 647.059 -0 
  1568.63 647.059 -200 
  1617.65 647.059 -0 
  1617.65 647.059 -200 
  1666.67 647.059 -0 
  1666.67 647.059 -200 
  1715.69 647.059 -0 
  1715.69 647.059 -200 
  1764.71 647.059 -0 
  1764.71 647.059 -200 
  1813.73 647.059 -0 
  1813.73 647.059 -200 
  1862.75 647.059 -0 
  1862.75 647.059 -200 
  1911.76 647.059 -0 
  1911.76 647.059 -200 
  1960.78 647.059 -0 
  1960.78 647.059 -200 
  2009.8 647.059 -0 
  2009.8 647.059 -200 
  2058.82 647.059 -0 
  2058.82 647.059 -200 
  2107.84 647.059 -0 
  2107.84 647.059 -200 
  2156.86 647.059 -0 
  2156.86 647.059 -200 
  2205.88 647.059 -0 
  2205.88 647.059 -200 
  2254.9 647.059 -0 
  2254.9 647.059 -200 
  2303.92 647.059 -0 
  2303.92 647.059 -200 
  2352.94 647.059 -0 
  2352.94 647.059 -200 
  2401.96 647.059 -0 
  2401.96 647.059 -200 
  2450.98 647.059 -0 
  2450.98 647.059 -200 
  2500 647.059 -0 
  2500 647.059 -200 
  0 705.882 -0 
  0 705.882 -200 
  49.0196 705.882 -0 
  49.0196 705.882 -200 
  98.0392 705.882 -0 
  98.0392 705.882 -200 
  147.059 705.882 -0 
  147.059 705.882 -200 
  196.078 705.882 -0 
  196.078 705.882 -200 
  245.098 705.882 -0 
  245.098 705.882 -200 
  294.118 705.882 -0 
  294.118 705.882 -200 
  343.137 705.882 -0 
  343.137 705.882 -200 
  392.157 705.882 -0 
  392.157 705.882 -200 
  441.176 705.882 -0 
  441.176 705.882 -200 
  490.196 705.882 -0 
  490.196 705.882 -200 
  539.216 705.882 -0 
  539.216 705.882 -200 
  588.235 705.882 -0 
  588.235 705.882 -200 
  637.255 705.882 -0 
  637.255 705.882 -200 
  686.275 705.882 -0 
  686.275 705.882 -200 
  735.294 705.882 -0 
  735.294 705.882 -200 
  784.314 705.882 -0 
  784.314 705.882 -200 
  833.333 705.882 -0 
  833.333 705.882 -200 
  882.353 705.882 -0 
  882.353 705.882 -200 
  931.373 705.882 -0 
  931.373 705.882 -200 
  980.392 705.882 -0 
  980.392 705.882 -200 
  1029.41 705.882 -0 
  1029.41 705.882 -200 
  1078.43 705.882 -0 
  1078.43 705.882 -200 
  1127.45 705.882 -0 
  1127.45 705.882 -200 
  1176.47 705.882 -0 
  1176.47 705.882 -200 
  1225.49 705.882 -0 
  1225.49 705.882 -200 
  1274.51 705.882 -0 
  1274.51 705.882 -200 
  1323.53 705.882 -0 
  1323.53 705.882 -200 
  1372.55 705.882 -0 
  1372.55 705.882 -200 
  1421.57 705.882 -0 
  1421.57 705.882 -200 
  1470.59 705.882 -0 
  1470.59 705.882 -200 
  1519.61 705.882 -0 
  1519.61 705.882 -200 
  1568.63 705.882 -0 
  1568.63 705.882 -200 
  1617.65 705.882 -0 
  1617.65 705.882 -200 
  1666.67 705.882 -0 
  1666.67 705.882 -200 
  1715.69 705.882 -0 
  1715.69 705.882 -200 
  1764.71 705.882 -0 
  1764.71 705.882 -200 
  1813.73 705.882 -0 
  1813.73 705.882 -200 
  1862.75 705.882 -0 
  1862.75 705.882 -200 
  1911.76 705.882 -0 
  1911.76 705.882 -200 
  1960.78 705.882 -0 
  1960.78 705.882 -200 
  2009.8 705.882 -0 
  2009.8 705.882 -200 
  2058.82 705.882 -0 
  2058.82 705.882 -200 
  2107.84 705.882 -0 
  2107.84 705.882 -200 
  2156.86 705.882 -0 
  2156.86 705.882 -200 
  2205.88 705.882 -0 
  2205.88 705.882 -200 
  2254.9 705.882 -0 