GRIDUNIT
  METRES /

SPECGRID
  4 4 2 /

COORD
  0 0 25.3153 
  0 0 0 
  25 0 25.3153 
  25 0 0 
  50 0 25.3153 
  50 0 0 
  75 0 25.3153 
  75 0 0 
  100 0 25.3153 
  100 0 0 
  0 25 25.3153 
  0 25 0 
  25 25 25.3153 
  25 25 0 
  50 25 25.3153 
  50 25 0 
  75 25 25.3153 
  75 25 0 
  100 25 25.3153 
  100 25 0 
  0 50 25.3153 
  0 50 0 
  25 50 25.3153 
  25 50 0 
  50 50 25.3153 
  50 50 0 
  75 50 25.3153 
  75 50 0 
  100 50 25.3153 
  100 50 0 
  0 75 25.3153 
  0 75 0 
  25 75 25.3153 
  25 75 0 
  50 75 25.3153 
  50 75 0 
  75 75 25.3153 
  75 75 0 
  100 75 25.3153 
  100 75 0 
  0 100 25.3153 
  0 100 0 
  25 100 25.3153 
  25 100 0 
  50 100 25.3153 
  50 100 0 
  75 100 25.3153 
  75 100 0 
  100 100 25.3153 
  100 100 0 
  /

ZCORN
  64*0
  64*12.6577
  64*12.6577
  64*25.3153
  /

PORO
  0.2999
  0.2999
  0.2999
  0.2999
  0.2999
  0.2999
  0.2999
  0.2999
  0.2999
  0.2999
  0.2999
  0.2999
  0.2999
  0.2999
  0.2999
  0.2999
  0.2999
  0.2999
  0.2999
  0.2999
  0.2999
  0.2999
  0.2999
  0.2999
  0.2999
  0.2999
  0.2999
  0.2999
  0.2999
  0.2999
  0.2999
  0.2999
  /

PERMX
  999.99
  999.99
  999.99
  999.99
  999.99
  999.99
  999.99
  999.99
  999.99
  999.99
  999.99
  999.99
  999.99
  999.99
  999.99
  999.99
  999.99
  999.99
  999.99
  999.99
  999.99
  999.99
  999.99
  999.99
  999.99
  999.99
  999.99
  999.99
  999.99
  999.99
  999.99
  999.99
  /

PERMY
  999.99
  999.99
  999.99
  999.99
  999.99
  999.99
  999.99
  999.99
  999.99
  999.99
  999.99
  999.99
  999.99
  999.99
  999.99
  999.99
  999.99
  999.99
  999.99
  999.99
  999.99
  999.99
  999.99
  999.99
  999.99
  999.99
  999.99
  999.99
  999.99
  999.99
  999.99
  999.99
  /

PERMZ
  999.99
  999.99
  999.99
  999.99
  999.99
  999.99
  999.99
  999.99
  999.99
  999.99
  999.99
  999.99
  999.99
  999.99
  999.99
  999.99
  999.99
  999.99
  999.99
  999.99
  999.99
  999.99
  999.99
  999.99
  999.99
  999.99
  999.99
  999.99
  999.99
  999.99
  999.99
  999.99
  /

PRESSURE
  314.831
  324.532
  326.028
  317.534
  328.475
  332.739
  336.017
  336.641
  337.857
  341.931
  348.659
  356.373
  343.163
  348.47
  360.316
  383.818
  314.831
  324.532
  326.028
  317.534
  328.475
  332.739
  336.017
  336.641
  337.857
  341.931
  348.659
  356.373
  343.163
  348.47
  360.316
  383.818
  /

OPERNUM
  1
  1
  1
  1
  1
  1
  1
  1
  1
  1
  1
  1
  1
  1
  1
  1
  1
  1
  1
  1
  1
  1
  1
  1
  1
  1
  1
  1
  1
  1
  1
  1
  /

ACTNUM
  1
  1
  1
  1
  1
  1
  1
  1
  1
  1
  1
  1
  1
  1
  1
  1
  1
  1
  1
  1
  1
  1
  1
  1
  1
  1
  1
  1
  1
  1
  1
  1
  /