GRIDUNIT
  METRES /

SPECGRID
  51 51 31 /

COORD
  0 0 169.466 
  0 0 0 
  19.6078 0 169.466 
  19.6078 0 0 
  39.2157 0 169.466 
  39.2157 0 0 
  58.8235 0 169.466 
  58.8235 0 0 
  78.4314 0 169.466 
  78.4314 0 0 
  98.0392 0 169.466 
  98.0392 0 0 
  117.647 0 169.466 
  117.647 0 0 
  137.255 0 169.466 
  137.255 0 0 
  156.863 0 169.466 
  156.863 0 0 
  176.471 0 169.466 
  176.471 0 0 
  196.078 0 169.466 
  196.078 0 0 
  215.686 0 169.466 
  215.686 0 0 
  235.294 0 169.466 
  235.294 0 0 
  254.902 0 169.466 
  254.902 0 0 
  274.51 0 169.466 
  274.51 0 0 
  294.118 0 169.466 
  294.118 0 0 
  313.725 0 169.466 
  313.725 0 0 
  333.333 0 169.466 
  333.333 0 0 
  352.941 0 169.466 
  352.941 0 0 
  372.549 0 169.466 
  372.549 0 0 
  392.157 0 169.466 
  392.157 0 0 
  411.765 0 169.466 
  411.765 0 0 
  431.373 0 169.466 
  431.373 0 0 
  450.98 0 169.466 
  450.98 0 0 
  470.588 0 169.466 
  470.588 0 0 
  490.196 0 169.466 
  490.196 0 0 
  509.804 0 169.466 
  509.804 0 0 
  529.412 0 169.466 
  529.412 0 0 
  549.02 0 169.466 
  549.02 0 0 
  568.627 0 169.466 
  568.627 0 0 
  588.235 0 169.466 
  588.235 0 0 
  607.843 0 169.466 
  607.843 0 0 
  627.451 0 169.466 
  627.451 0 0 
  647.059 0 169.466 
  647.059 0 0 
  666.667 0 169.466 
  666.667 0 0 
  686.275 0 169.466 
  686.275 0 0 
  705.882 0 169.466 
  705.882 0 0 
  725.49 0 169.466 
  725.49 0 0 
  745.098 0 169.466 
  745.098 0 0 
  764.706 0 169.466 
  764.706 0 0 
  784.314 0 169.466 
  784.314 0 0 
  803.922 0 169.466 
  803.922 0 0 
  823.529 0 169.466 
  823.529 0 0 
  843.137 0 169.466 
  843.137 0 0 
  862.745 0 169.466 
  862.745 0 0 
  882.353 0 169.466 
  882.353 0 0 
  901.961 0 169.466 
  901.961 0 0 
  921.569 0 169.466 
  921.569 0 0 
  941.176 0 169.466 
  941.176 0 0 
  960.784 0 169.466 
  960.784 0 0 
  980.392 0 169.466 
  980.392 0 0 
  1000 0 169.466 
  1000 0 0 
  0 19.6078 169.466 
  0 19.6078 0 
  19.6078 19.6078 169.466 
  19.6078 19.6078 0 
  39.2157 19.6078 169.466 
  39.2157 19.6078 0 
  58.8235 19.6078 169.466 
  58.8235 19.6078 0 
  78.4314 19.6078 169.466 
  78.4314 19.6078 0 
  98.0392 19.6078 169.466 
  98.0392 19.6078 0 
  117.647 19.6078 169.466 
  117.647 19.6078 0 
  137.255 19.6078 169.466 
  137.255 19.6078 0 
  156.863 19.6078 169.466 
  156.863 19.6078 0 
  176.471 19.6078 169.466 
  176.471 19.6078 0 
  196.078 19.6078 169.466 
  196.078 19.6078 0 
  215.686 19.6078 169.466 
  215.686 19.6078 0 
  235.294 19.6078 169.466 
  235.294 19.6078 0 
  254.902 19.6078 169.466 
  254.902 19.6078 0 
  274.51 19.6078 169.466 
  274.51 19.6078 0 
  294.118 19.6078 169.466 
  294.118 19.6078 0 
  313.725 19.6078 169.466 
  313.725 19.6078 0 
  333.333 19.6078 169.466 
  333.333 19.6078 0 
  352.941 19.6078 169.466 
  352.941 19.6078 0 
  372.549 19.6078 169.466 
  372.549 19.6078 0 
  392.157 19.6078 169.466 
  392.157 19.6078 0 
  411.765 19.6078 169.466 
  411.765 19.6078 0 
  431.373 19.6078 169.466 
  431.373 19.6078 0 
  450.98 19.6078 169.466 
  450.98 19.6078 0 
  470.588 19.6078 169.466 
  470.588 19.6078 0 
  490.196 19.6078 169.466 
  490.196 19.6078 0 
  509.804 19.6078 169.466 
  509.804 19.6078 0 
  529.412 19.6078 169.466 
  529.412 19.6078 0 
  549.02 19.6078 169.466 
  549.02 19.6078 0 
  568.627 19.6078 169.466 
  568.627 19.6078 0 
  588.235 19.6078 169.466 
  588.235 19.6078 0 
  607.843 19.6078 169.466 
  607.843 19.6078 0 
  627.451 19.6078 169.466 
  627.451 19.6078 0 
  647.059 19.6078 169.466 
  647.059 19.6078 0 
  666.667 19.6078 169.466 
  666.667 19.6078 0 
  686.275 19.6078 169.466 
  686.275 19.6078 0 
  705.882 19.6078 169.466 
  705.882 19.6078 0 
  725.49 19.6078 169.466 
  725.49 19.6078 0 
  745.098 19.6078 169.466 
  745.098 19.6078 0 
  764.706 19.6078 169.466 
  764.706 19.6078 0 
  784.314 19.6078 169.466 
  784.314 19.6078 0 
  803.922 19.6078 169.466 
  803.922 19.6078 0 
  823.529 19.6078 169.466 
  823.529 19.6078 0 
  843.137 19.6078 169.466 
  843.137 19.6078 0 
  862.745 19.6078 169.466 
  862.745 19.6078 0 
  882.353 19.6078 169.466 
  882.353 19.6078 0 
  901.961 19.6078 169.466 
  901.961 19.6078 0 
  921.569 19.6078 169.466 
  921.569 19.6078 0 
  941.176 19.6078 169.466 
  941.176 19.6078 0 
  960.784 19.6078 169.466 
  960.784 19.6078 0 
  980.392 19.6078 169.466 
  980.392 19.6078 0 
  1000 19.6078 169.466 
  1000 19.6078 0 
  0 39.2157 169.466 
  0 39.2157 0 
  19.6078 39.2157 169.466 
  19.6078 39.2157 0 
  39.2157 39.2157 169.466 
  39.2157 39.2157 0 
  58.8235 39.2157 169.466 
  58.8235 39.2157 0 
  78.4314 39.2157 169.466 
  78.4314 39.2157 0 
  98.0392 39.2157 169.466 
  98.0392 39.2157 0 
  117.647 39.2157 169.466 
  117.647 39.2157 0 
  137.255 39.2157 169.466 
  137.255 39.2157 0 
  156.863 39.2157 169.466 
  156.863 39.2157 0 
  176.471 39.2157 169.466 
  176.471 39.2157 0 
  196.078 39.2157 169.466 
  196.078 39.2157 0 
  215.686 39.2157 169.466 
  215.686 39.2157 0 
  235.294 39.2157 169.466 
  235.294 39.2157 0 
  254.902 39.2157 169.466 
  254.902 39.2157 0 
  274.51 39.2157 169.466 
  274.51 39.2157 0 
  294.118 39.2157 169.466 
  294.118 39.2157 0 
  313.725 39.2157 169.466 
  313.725 39.2157 0 
  333.333 39.2157 169.466 
  333.333 39.2157 0 
  352.941 39.2157 169.466 
  352.941 39.2157 0 
  372.549 39.2157 169.466 
  372.549 39.2157 0 
  392.157 39.2157 169.466 
  392.157 39.2157 0 
  411.765 39.2157 169.466 
  411.765 39.2157 0 
  431.373 39.2157 169.466 
  431.373 39.2157 0 
  450.98 39.2157 169.466 
  450.98 39.2157 0 
  470.588 39.2157 169.466 
  470.588 39.2157 0 
  490.196 39.2157 169.466 
  490.196 39.2157 0 
  509.804 39.2157 169.466 
  509.804 39.2157 0 
  529.412 39.2157 169.466 
  529.412 39.2157 0 
  549.02 39.2157 169.466 
  549.02 39.2157 0 
  568.627 39.2157 169.466 
  568.627 39.2157 0 
  588.235 39.2157 169.466 
  588.235 39.2157 0 
  607.843 39.2157 169.466 
  607.843 39.2157 0 
  627.451 39.2157 169.466 
  627.451 39.2157 0 
  647.059 39.2157 169.466 
  647.059 39.2157 0 
  666.667 39.2157 169.466 
  666.667 39.2157 0 
  686.275 39.2157 169.466 
  686.275 39.2157 0 
  705.882 39.2157 169.466 
  705.882 39.2157 0 
  725.49 39.2157 169.466 
  725.49 39.2157 0 
  745.098 39.2157 169.466 
  745.098 39.2157 0 
  764.706 39.2157 169.466 
  764.706 39.2157 0 
  784.314 39.2157 169.466 
  784.314 39.2157 0 
  803.922 39.2157 169.466 
  803.922 39.2157 0 
  823.529 39.2157 169.466 
  823.529 39.2157 0 
  843.137 39.2157 169.466 
  843.137 39.2157 0 
  862.745 39.2157 169.466 
  862.745 39.2157 0 
  882.353 39.2157 169.466 
  882.353 39.2157 0 
  901.961 39.2157 169.466 
  901.961 39.2157 0 
  921.569 39.2157 169.466 
  921.569 39.2157 0 
  941.176 39.2157 169.466 
  941.176 39.2157 0 
  960.784 39.2157 169.466 
  960.784 39.2157 0 
  980.392 39.2157 169.466 
  980.392 39.2157 0 
  1000 39.2157 169.466 
  1000 39.2157 0 
  0 58.8235 169.466 
  0 58.8235 0 
  19.6078 58.8235 169.466 
  19.6078 58.8235 0 
  39.2157 58.8235 169.466 
  39.2157 58.8235 0 
  58.8235 58.8235 169.466 
  58.8235 58.8235 0 
  78.4314 58.8235 169.466 
  78.4314 58.8235 0 
  98.0392 58.8235 169.466 
  98.0392 58.8235 0 
  117.647 58.8235 169.466 
  117.647 58.8235 0 
  137.255 58.8235 169.466 
  137.255 58.8235 0 
  156.863 58.8235 169.466 
  156.863 58.8235 0 
  176.471 58.8235 169.466 
  176.471 58.8235 0 
  196.078 58.8235 169.466 
  196.078 58.8235 0 
  215.686 58.8235 169.466 
  215.686 58.8235 0 
  235.294 58.8235 169.466 
  235.294 58.8235 0 
  254.902 58.8235 169.466 
  254.902 58.8235 0 
  274.51 58.8235 169.466 
  274.51 58.8235 0 
  294.118 58.8235 169.466 
  294.118 58.8235 0 
  313.725 58.8235 169.466 
  313.725 58.8235 0 
  333.333 58.8235 169.466 
  333.333 58.8235 0 
  352.941 58.8235 169.466 
  352.941 58.8235 0 
  372.549 58.8235 169.466 
  372.549 58.8235 0 
  392.157 58.8235 169.466 
  392.157 58.8235 0 
  411.765 58.8235 169.466 
  411.765 58.8235 0 
  431.373 58.8235 169.466 
  431.373 58.8235 0 
  450.98 58.8235 169.466 
  450.98 58.8235 0 
  470.588 58.8235 169.466 
  470.588 58.8235 0 
  490.196 58.8235 169.466 
  490.196 58.8235 0 
  509.804 58.8235 169.466 
  509.804 58.8235 0 
  529.412 58.8235 169.466 
  529.412 58.8235 0 
  549.02 58.8235 169.466 
  549.02 58.8235 0 
  568.627 58.8235 169.466 
  568.627 58.8235 0 
  588.235 58.8235 169.466 
  588.235 58.8235 0 
  607.843 58.8235 169.466 
  607.843 58.8235 0 
  627.451 58.8235 169.466 
  627.451 58.8235 0 
  647.059 58.8235 169.466 
  647.059 58.8235 0 
  666.667 58.8235 169.466 
  666.667 58.8235 0 
  686.275 58.8235 169.466 
  686.275 58.8235 0 
  705.882 58.8235 169.466 
  705.882 58.8235 0 
  725.49 58.8235 169.466 
  725.49 58.8235 0 
  745.098 58.8235 169.466 
  745.098 58.8235 0 
  764.706 58.8235 169.466 
  764.706 58.8235 0 
  784.314 58.8235 169.466 
  784.314 58.8235 0 
  803.922 58.8235 169.466 
  803.922 58.8235 0 
  823.529 58.8235 169.466 
  823.529 58.8235 0 
  843.137 58.8235 169.466 
  843.137 58.8235 0 
  862.745 58.8235 169.466 
  862.745 58.8235 0 
  882.353 58.8235 169.466 
  882.353 58.8235 0 
  901.961 58.8235 169.466 
  901.961 58.8235 0 
  921.569 58.8235 169.466 
  921.569 58.8235 0 
  941.176 58.8235 169.466 
  941.176 58.8235 0 
  960.784 58.8235 169.466 
  960.784 58.8235 0 
  980.392 58.8235 169.466 
  980.392 58.8235 0 
  1000 58.8235 169.466 
  1000 58.8235 0 
  0 78.4314 169.466 
  0 78.4314 0 
  19.6078 78.4314 169.466 
  19.6078 78.4314 0 
  39.2157 78.4314 169.466 
  39.2157 78.4314 0 
  58.8235 78.4314 169.466 
  58.8235 78.4314 0 
  78.4314 78.4314 169.466 
  78.4314 78.4314 0 
  98.0392 78.4314 169.466 
  98.0392 78.4314 0 
  117.647 78.4314 169.466 
  117.647 78.4314 0 
  137.255 78.4314 169.466 
  137.255 78.4314 0 
  156.863 78.4314 169.466 
  156.863 78.4314 0 
  176.471 78.4314 169.466 
  176.471 78.4314 0 
  196.078 78.4314 169.466 
  196.078 78.4314 0 
  215.686 78.4314 169.466 
  215.686 78.4314 0 
  235.294 78.4314 169.466 
  235.294 78.4314 0 
  254.902 78.4314 169.466 
  254.902 78.4314 0 
  274.51 78.4314 169.466 
  274.51 78.4314 0 
  294.118 78.4314 169.466 
  294.118 78.4314 0 
  313.725 78.4314 169.466 
  313.725 78.4314 0 
  333.333 78.4314 169.466 
  333.333 78.4314 0 
  352.941 78.4314 169.466 
  352.941 78.4314 0 
  372.549 78.4314 169.466 
  372.549 78.4314 0 
  392.157 78.4314 169.466 
  392.157 78.4314 0 
  411.765 78.4314 169.466 
  411.765 78.4314 0 
  431.373 78.4314 169.466 
  431.373 78.4314 0 
  450.98 78.4314 169.466 
  450.98 78.4314 0 
  470.588 78.4314 169.466 
  470.588 78.4314 0 
  490.196 78.4314 169.466 
  490.196 78.4314 0 
  509.804 78.4314 169.466 
  509.804 78.4314 0 
  529.412 78.4314 169.466 
  529.412 78.4314 0 
  549.02 78.4314 169.466 
  549.02 78.4314 0 
  568.627 78.4314 169.466 
  568.627 78.4314 0 
  588.235 78.4314 169.466 
  588.235 78.4314 0 
  607.843 78.4314 169.466 
  607.843 78.4314 0 
  627.451 78.4314 169.466 
  627.451 78.4314 0 
  647.059 78.4314 169.466 
  647.059 78.4314 0 
  666.667 78.4314 169.466 
  666.667 78.4314 0 
  686.275 78.4314 169.466 
  686.275 78.4314 0 
  705.882 78.4314 169.466 
  705.882 78.4314 0 
  725.49 78.4314 169.466 
  725.49 78.4314 0 
  745.098 78.4314 169.466 
  745.098 78.4314 0 
  764.706 78.4314 169.466 
  764.706 78.4314 0 
  784.314 78.4314 169.466 
  784.314 78.4314 0 
  803.922 78.4314 169.466 
  803.922 78.4314 0 
  823.529 78.4314 169.466 
  823.529 78.4314 0 
  843.137 78.4314 169.466 
  843.137 78.4314 0 
  862.745 78.4314 169.466 
  862.745 78.4314 0 
  882.353 78.4314 169.466 
  882.353 78.4314 0 
  901.961 78.4314 169.466 
  901.961 78.4314 0 
  921.569 78.4314 169.466 
  921.569 78.4314 0 
  941.176 78.4314 169.466 
  941.176 78.4314 0 
  960.784 78.4314 169.466 
  960.784 78.4314 0 
  980.392 78.4314 169.466 
  980.392 78.4314 0 
  1000 78.4314 169.466 
  1000 78.4314 0 
  0 98.0392 169.466 
  0 98.0392 0 
  19.6078 98.0392 169.466 
  19.6078 98.0392 0 
  39.2157 98.0392 169.466 
  39.2157 98.0392 0 
  58.8235 98.0392 169.466 
  58.8235 98.0392 0 
  78.4314 98.0392 169.466 
  78.4314 98.0392 0 
  98.0392 98.0392 169.466 
  98.0392 98.0392 0 
  117.647 98.0392 169.466 
  117.647 98.0392 0 
  137.255 98.0392 169.466 
  137.255 98.0392 0 
  156.863 98.0392 169.466 
  156.863 98.0392 0 
  176.471 98.0392 169.466 
  176.471 98.0392 0 
  196.078 98.0392 169.466 
  196.078 98.0392 0 
  215.686 98.0392 169.466 
  215.686 98.0392 0 
  235.294 98.0392 169.466 
  235.294 98.0392 0 
  254.902 98.0392 169.466 
  254.902 98.0392 0 
  274.51 98.0392 169.466 
  274.51 98.0392 0 
  294.118 98.0392 169.466 
  294.118 98.0392 0 
  313.725 98.0392 169.466 
  313.725 98.0392 0 
  333.333 98.0392 169.466 
  333.333 98.0392 0 
  352.941 98.0392 169.466 
  352.941 98.0392 0 
  372.549 98.0392 169.466 
  372.549 98.0392 0 
  392.157 98.0392 169.466 
  392.157 98.0392 0 
  411.765 98.0392 169.466 
  411.765 98.0392 0 
  431.373 98.0392 169.466 
  431.373 98.0392 0 
  450.98 98.0392 169.466 
  450.98 98.0392 0 
  470.588 98.0392 169.466 
  470.588 98.0392 0 
  490.196 98.0392 169.466 
  490.196 98.0392 0 
  509.804 98.0392 169.466 
  509.804 98.0392 0 
  529.412 98.0392 169.466 
  529.412 98.0392 0 
  549.02 98.0392 169.466 
  549.02 98.0392 0 
  568.627 98.0392 169.466 
  568.627 98.0392 0 
  588.235 98.0392 169.466 
  588.235 98.0392 0 
  607.843 98.0392 169.466 
  607.843 98.0392 0 
  627.451 98.0392 169.466 
  627.451 98.0392 0 
  647.059 98.0392 169.466 
  647.059 98.0392 0 
  666.667 98.0392 169.466 
  666.667 98.0392 0 
  686.275 98.0392 169.466 
  686.275 98.0392 0 
  705.882 98.0392 169.466 
  705.882 98.0392 0 
  725.49 98.0392 169.466 
  725.49 98.0392 0 
  745.098 98.0392 169.466 
  745.098 98.0392 0 
  764.706 98.0392 169.466 
  764.706 98.0392 0 
  784.314 98.0392 169.466 
  784.314 98.0392 0 
  803.922 98.0392 169.466 
  803.922 98.0392 0 
  823.529 98.0392 169.466 
  823.529 98.0392 0 
  843.137 98.0392 169.466 
  843.137 98.0392 0 
  862.745 98.0392 169.466 
  862.745 98.0392 0 
  882.353 98.0392 169.466 
  882.353 98.0392 0 
  901.961 98.0392 169.466 
  901.961 98.0392 0 
  921.569 98.0392 169.466 
  921.569 98.0392 0 
  941.176 98.0392 169.466 
  941.176 98.0392 0 
  960.784 98.0392 169.466 
  960.784 98.0392 0 
  980.392 98.0392 169.466 
  980.392 98.0392 0 
  1000 98.0392 169.466 
  1000 98.0392 0 
  0 117.647 169.466 
  0 117.647 0 
  19.6078 117.647 169.466 
  19.6078 117.647 0 
  39.2157 117.647 169.466 
  39.2157 117.647 0 
  58.8235 117.647 169.466 
  58.8235 117.647 0 
  78.4314 117.647 169.466 
  78.4314 117.647 0 
  98.0392 117.647 169.466 
  98.0392 117.647 0 
  117.647 117.647 169.466 
  117.647 117.647 0 
  137.255 117.647 169.466 
  137.255 117.647 0 
  156.863 117.647 169.466 
  156.863 117.647 0 
  176.471 117.647 169.466 
  176.471 117.647 0 
  196.078 117.647 169.466 
  196.078 117.647 0 
  215.686 117.647 169.466 
  215.686 117.647 0 
  235.294 117.647 169.466 
  235.294 117.647 0 
  254.902 117.647 169.466 
  254.902 117.647 0 
  274.51 117.647 169.466 
  274.51 117.647 0 
  294.118 117.647 169.466 
  294.118 117.647 0 
  313.725 117.647 169.466 
  313.725 117.647 0 
  333.333 117.647 169.466 
  333.333 117.647 0 
  352.941 117.647 169.466 
  352.941 117.647 0 
  372.549 117.647 169.466 
  372.549 117.647 0 
  392.157 117.647 169.466 
  392.157 117.647 0 
  411.765 117.647 169.466 
  411.765 117.647 0 
  431.373 117.647 169.466 
  431.373 117.647 0 
  450.98 117.647 169.466 
  450.98 117.647 0 
  470.588 117.647 169.466 
  470.588 117.647 0 
  490.196 117.647 169.466 
  490.196 117.647 0 
  509.804 117.647 169.466 
  509.804 117.647 0 
  529.412 117.647 169.466 
  529.412 117.647 0 
  549.02 117.647 169.466 
  549.02 117.647 0 
  568.627 117.647 169.466 
  568.627 117.647 0 
  588.235 117.647 169.466 
  588.235 117.647 0 
  607.843 117.647 169.466 
  607.843 117.647 0 
  627.451 117.647 169.466 
  627.451 117.647 0 
  647.059 117.647 169.466 
  647.059 117.647 0 
  666.667 117.647 169.466 
  666.667 117.647 0 
  686.275 117.647 169.466 
  686.275 117.647 0 
  705.882 117.647 169.466 
  705.882 117.647 0 
  725.49 117.647 169.466 
  725.49 117.647 0 
  745.098 117.647 169.466 
  745.098 117.647 0 
  764.706 117.647 169.466 
  764.706 117.647 0 
  784.314 117.647 169.466 
  784.314 117.647 0 
  803.922 117.647 169.466 
  803.922 117.647 0 
  823.529 117.647 169.466 
  823.529 117.647 0 
  843.137 117.647 169.466 
  843.137 117.647 0 
  862.745 117.647 169.466 
  862.745 117.647 0 
  882.353 117.647 169.466 
  882.353 117.647 0 
  901.961 117.647 169.466 
  901.961 117.647 0 
  921.569 117.647 169.466 
  921.569 117.647 0 
  941.176 117.647 169.466 
  941.176 117.647 0 
  960.784 117.647 169.466 
  960.784 117.647 0 
  980.392 117.647 169.466 
  980.392 117.647 0 
  1000 117.647 169.466 
  1000 117.647 0 
  0 137.255 169.466 
  0 137.255 0 
  19.6078 137.255 169.466 
  19.6078 137.255 0 
  39.2157 137.255 169.466 
  39.2157 137.255 0 
  58.8235 137.255 169.466 
  58.8235 137.255 0 
  78.4314 137.255 169.466 
  78.4314 137.255 0 
  98.0392 137.255 169.466 
  98.0392 137.255 0 
  117.647 137.255 169.466 
  117.647 137.255 0 
  137.255 137.255 169.466 
  137.255 137.255 0 
  156.863 137.255 169.466 
  156.863 137.255 0 
  176.471 137.255 169.466 
  176.471 137.255 0 
  196.078 137.255 169.466 
  196.078 137.255 0 
  215.686 137.255 169.466 
  215.686 137.255 0 
  235.294 137.255 169.466 
  235.294 137.255 0 
  254.902 137.255 169.466 
  254.902 137.255 0 
  274.51 137.255 169.466 
  274.51 137.255 0 
  294.118 137.255 169.466 
  294.118 137.255 0 
  313.725 137.255 169.466 
  313.725 137.255 0 
  333.333 137.255 169.466 
  333.333 137.255 0 
  352.941 137.255 169.466 
  352.941 137.255 0 
  372.549 137.255 169.466 
  372.549 137.255 0 
  392.157 137.255 169.466 
  392.157 137.255 0 
  411.765 137.255 169.466 
  411.765 137.255 0 
  431.373 137.255 169.466 
  431.373 137.255 0 
  450.98 137.255 169.466 
  450.98 137.255 0 
  470.588 137.255 169.466 
  470.588 137.255 0 
  490.196 137.255 169.466 
  490.196 137.255 0 
  509.804 137.255 169.466 
  509.804 137.255 0 
  529.412 137.255 169.466 
  529.412 137.255 0 
  549.02 137.255 169.466 
  549.02 137.255 0 
  568.627 137.255 169.466 
  568.627 137.255 0 
  588.235 137.255 169.466 
  588.235 137.255 0 
  607.843 137.255 169.466 
  607.843 137.255 0 
  627.451 137.255 169.466 
  627.451 137.255 0 
  647.059 137.255 169.466 
  647.059 137.255 0 
  666.667 137.255 169.466 
  666.667 137.255 0 
  686.275 137.255 169.466 
  686.275 137.255 0 
  705.882 137.255 169.466 
  705.882 137.255 0 
  725.49 137.255 169.466 
  725.49 137.255 0 
  745.098 137.255 169.466 
  745.098 137.255 0 
  764.706 137.255 169.466 
  764.706 137.255 0 
  784.314 137.255 169.466 
  784.314 137.255 0 
  803.922 137.255 169.466 
  803.922 137.255 0 
  823.529 137.255 169.466 
  823.529 137.255 0 
  843.137 137.255 169.466 
  843.137 137.255 0 
  862.745 137.255 169.466 
  862.745 137.255 0 
  882.353 137.255 169.466 
  882.353 137.255 0 
  901.961 137.255 169.466 
  901.961 137.255 0 
  921.569 137.255 169.466 
  921.569 137.255 0 
  941.176 137.255 169.466 
  941.176 137.255 0 
  960.784 137.255 169.466 
  960.784 137.255 0 
  980.392 137.255 169.466 
  980.392 137.255 0 
  1000 137.255 169.466 
  1000 137.255 0 
  0 156.863 169.466 
  0 156.863 0 
  19.6078 156.863 169.466 
  19.6078 156.863 0 
  39.2157 156.863 169.466 
  39.2157 156.863 0 
  58.8235 156.863 169.466 
  58.8235 156.863 0 
  78.4314 156.863 169.466 
  78.4314 156.863 0 
  98.0392 156.863 169.466 
  98.0392 156.863 0 
  117.647 156.863 169.466 
  117.647 156.863 0 
  137.255 156.863 169.466 
  137.255 156.863 0 
  156.863 156.863 169.466 
  156.863 156.863 0 
  176.471 156.863 169.466 
  176.471 156.863 0 
  196.078 156.863 169.466 
  196.078 156.863 0 
  215.686 156.863 169.466 
  215.686 156.863 0 
  235.294 156.863 169.466 
  235.294 156.863 0 
  254.902 156.863 169.466 
  254.902 156.863 0 
  274.51 156.863 169.466 
  274.51 156.863 0 
  294.118 156.863 169.466 
  294.118 156.863 0 
  313.725 156.863 169.466 
  313.725 156.863 0 
  333.333 156.863 169.466 
  333.333 156.863 0 
  352.941 156.863 169.466 
  352.941 156.863 0 
  372.549 156.863 169.466 
  372.549 156.863 0 
  392.157 156.863 169.466 
  392.157 156.863 0 
  411.765 156.863 169.466 
  411.765 156.863 0 
  431.373 156.863 169.466 
  431.373 156.863 0 
  450.98 156.863 169.466 
  450.98 156.863 0 
  470.588 156.863 169.466 
  470.588 156.863 0 
  490.196 156.863 169.466 
  490.196 156.863 0 
  509.804 156.863 169.466 
  509.804 156.863 0 
  529.412 156.863 169.466 
  529.412 156.863 0 
  549.02 156.863 169.466 
  549.02 156.863 0 
  568.627 156.863 169.466 
  568.627 156.863 0 
  588.235 156.863 169.466 
  588.235 156.863 0 
  607.843 156.863 169.466 
  607.843 156.863 0 
  627.451 156.863 169.466 
  627.451 156.863 0 
  647.059 156.863 169.466 
  647.059 156.863 0 
  666.667 156.863 169.466 
  666.667 156.863 0 
  686.275 156.863 169.466 
  686.275 156.863 0 
  705.882 156.863 169.466 
  705.882 156.863 0 
  725.49 156.863 169.466 
  725.49 156.863 0 
  745.098 156.863 169.466 
  745.098 156.863 0 
  764.706 156.863 169.466 
  764.706 156.863 0 
  784.314 156.863 169.466 
  784.314 156.863 0 
  803.922 156.863 169.466 
  803.922 156.863 0 
  823.529 156.863 169.466 
  823.529 156.863 0 
  843.137 156.863 169.466 
  843.137 156.863 0 
  862.745 156.863 169.466 
  862.745 156.863 0 
  882.353 156.863 169.466 
  882.353 156.863 0 
  901.961 156.863 169.466 
  901.961 156.863 0 
  921.569 156.863 169.466 
  921.569 156.863 0 
  941.176 156.863 169.466 
  941.176 156.863 0 
  960.784 156.863 169.466 
  960.784 156.863 0 
  980.392 156.863 169.466 
  980.392 156.863 0 
  1000 156.863 169.466 
  1000 156.863 0 
  0 176.471 169.466 
  0 176.471 0 
  19.6078 176.471 169.466 
  19.6078 176.471 0 
  39.2157 176.471 169.466 
  39.2157 176.471 0 
  58.8235 176.471 169.466 
  58.8235 176.471 0 
  78.4314 176.471 169.466 
  78.4314 176.471 0 
  98.0392 176.471 169.466 
  98.0392 176.471 0 
  117.647 176.471 169.466 
  117.647 176.471 0 
  137.255 176.471 169.466 
  137.255 176.471 0 
  156.863 176.471 169.466 
  156.863 176.471 0 
  176.471 176.471 169.466 
  176.471 176.471 0 
  196.078 176.471 169.466 
  196.078 176.471 0 
  215.686 176.471 169.466 
  215.686 176.471 0 
  235.294 176.471 169.466 
  235.294 176.471 0 
  254.902 176.471 169.466 
  254.902 176.471 0 
  274.51 176.471 169.466 
  274.51 176.471 0 
  294.118 176.471 169.466 
  294.118 176.471 0 
  313.725 176.471 169.466 
  313.725 176.471 0 
  333.333 176.471 169.466 
  333.333 176.471 0 
  352.941 176.471 169.466 
  352.941 176.471 0 
  372.549 176.471 169.466 
  372.549 176.471 0 
  392.157 176.471 169.466 
  392.157 176.471 0 
  411.765 176.471 169.466 
  411.765 176.471 0 
  431.373 176.471 169.466 
  431.373 176.471 0 
  450.98 176.471 169.466 
  450.98 176.471 0 
  470.588 176.471 169.466 
  470.588 176.471 0 
  490.196 176.471 169.466 
  490.196 176.471 0 
  509.804 176.471 169.466 
  509.804 176.471 0 
  529.412 176.471 169.466 
  529.412 176.471 0 
  549.02 176.471 169.466 
  549.02 176.471 0 
  568.627 176.471 169.466 
  568.627 176.471 0 
  588.235 176.471 169.466 
  588.235 176.471 0 
  607.843 176.471 169.466 
  607.843 176.471 0 
  627.451 176.471 169.466 
  627.451 176.471 0 
  647.059 176.471 169.466 
  647.059 176.471 0 
  666.667 176.471 169.466 
  666.667 176.471 0 
  686.275 176.471 169.466 
  686.275 176.471 0 
  705.882 176.471 169.466 
  705.882 176.471 0 
  725.49 176.471 169.466 
  725.49 176.471 0 
  745.098 176.471 169.466 
  745.098 176.471 0 
  764.706 176.471 169.466 
  764.706 176.471 0 
  784.314 176.471 169.466 
  784.314 176.471 0 
  803.922 176.471 169.466 
  803.922 176.471 0 
  823.529 176.471 169.466 
  823.529 176.471 0 
  843.137 176.471 169.466 
  843.137 176.471 0 
  862.745 176.471 169.466 
  862.745 176.471 0 
  882.353 176.471 169.466 
  882.353 176.471 0 
  901.961 176.471 169.466 
  901.961 176.471 0 
  921.569 176.471 169.466 
  921.569 176.471 0 
  941.176 176.471 169.466 
  941.176 176.471 0 
  960.784 176.471 169.466 
  960.784 176.471 0 
  980.392 176.471 169.466 
  980.392 176.471 0 
  1000 176.471 169.466 
  1000 176.471 0 
  0 196.078 169.466 
  0 196.078 0 
  19.6078 196.078 169.466 
  19.6078 196.078 0 
  39.2157 196.078 169.466 
  39.2157 196.078 0 
  58.8235 196.078 169.466 
  58.8235 196.078 0 
  78.4314 196.078 169.466 
  78.4314 196.078 0 
  98.0392 196.078 169.466 
  98.0392 196.078 0 
  117.647 196.078 169.466 
  117.647 196.078 0 
  137.255 196.078 169.466 
  137.255 196.078 0 
  156.863 196.078 169.466 
  156.863 196.078 0 
  176.471 196.078 169.466 
  176.471 196.078 0 
  196.078 196.078 169.466 
  196.078 196.078 0 
  215.686 196.078 169.466 
  215.686 196.078 0 
  235.294 196.078 169.466 
  235.294 196.078 0 
  254.902 196.078 169.466 
  254.902 196.078 0 
  274.51 196.078 169.466 
  274.51 196.078 0 
  294.118 196.078 169.466 
  294.118 196.078 0 
  313.725 196.078 169.466 
  313.725 196.078 0 
  333.333 196.078 169.466 
  333.333 196.078 0 
  352.941 196.078 169.466 
  352.941 196.078 0 
  372.549 196.078 169.466 
  372.549 196.078 0 
  392.157 196.078 169.466 
  392.157 196.078 0 
  411.765 196.078 169.466 
  411.765 196.078 0 
  431.373 196.078 169.466 
  431.373 196.078 0 
  450.98 196.078 169.466 
  450.98 196.078 0 
  470.588 196.078 169.466 
  470.588 196.078 0 
  490.196 196.078 169.466 
  490.196 196.078 0 
  509.804 196.078 169.466 
  509.804 196.078 0 
  529.412 196.078 169.466 
  529.412 196.078 0 
  549.02 196.078 169.466 
  549.02 196.078 0 
  568.627 196.078 169.466 
  568.627 196.078 0 
  588.235 196.078 169.466 
  588.235 196.078 0 
  607.843 196.078 169.466 
  607.843 196.078 0 
  627.451 196.078 169.466 
  627.451 196.078 0 
  647.059 196.078 169.466 
  647.059 196.078 0 
  666.667 196.078 169.466 
  666.667 196.078 0 
  686.275 196.078 169.466 
  686.275 196.078 0 
  705.882 196.078 169.466 
  705.882 196.078 0 
  725.49 196.078 169.466 
  725.49 196.078 0 
  745.098 196.078 169.466 
  745.098 196.078 0 
  764.706 196.078 169.466 
  764.706 196.078 0 
  784.314 196.078 169.466 
  784.314 196.078 0 
  803.922 196.078 169.466 
  803.922 196.078 0 
  823.529 196.078 169.466 
  823.529 196.078 0 
  843.137 196.078 169.466 
  843.137 196.078 0 
  862.745 196.078 169.466 
  862.745 196.078 0 
  882.353 196.078 169.466 
  882.353 196.078 0 
  901.961 196.078 169.466 
  901.961 196.078 0 
  921.569 196.078 169.466 
  921.569 196.078 0 
  941.176 196.078 169.466 
  941.176 196.078 0 
  960.784 196.078 169.466 
  960.784 196.078 0 
  980.392 196.078 169.466 
  980.392 196.078 0 
  1000 196.078 169.466 
  1000 196.078 0 
  0 215.686 169.466 
  0 215.686 0 
  19.6078 215.686 169.466 
  19.6078 215.686 0 
  39.2157 215.686 169.466 
  39.2157 215.686 0 
  58.8235 215.686 169.466 
  58.8235 215.686 0 
  78.4314 215.686 169.466 
  78.4314 215.686 0 
  98.0392 215.686 169.466 
  98.0392 215.686 0 
  117.647 215.686 169.466 
  117.647 215.686 0 
  137.255 215.686 169.466 
  137.255 215.686 0 
  156.863 215.686 169.466 
  156.863 215.686 0 
  176.471 215.686 169.466 
  176.471 215.686 0 
  196.078 215.686 169.466 
  196.078 215.686 0 
  215.686 215.686 169.466 
  215.686 215.686 0 
  235.294 215.686 169.466 
  235.294 215.686 0 
  254.902 215.686 169.466 
  254.902 215.686 0 
  274.51 215.686 169.466 
  274.51 215.686 0 
  294.118 215.686 169.466 
  294.118 215.686 0 
  313.725 215.686 169.466 
  313.725 215.686 0 
  333.333 215.686 169.466 
  333.333 215.686 0 
  352.941 215.686 169.466 
  352.941 215.686 0 
  372.549 215.686 169.466 
  372.549 215.686 0 
  392.157 215.686 169.466 
  392.157 215.686 0 
  411.765 215.686 169.466 
  411.765 215.686 0 
  431.373 215.686 169.466 
  431.373 215.686 0 
  450.98 215.686 169.466 
  450.98 215.686 0 
  470.588 215.686 169.466 
  470.588 215.686 0 
  490.196 215.686 169.466 
  490.196 215.686 0 
  509.804 215.686 169.466 
  509.804 215.686 0 
  529.412 215.686 169.466 
  529.412 215.686 0 
  549.02 215.686 169.466 
  549.02 215.686 0 
  568.627 215.686 169.466 
  568.627 215.686 0 
  588.235 215.686 169.466 
  588.235 215.686 0 
  607.843 215.686 169.466 
  607.843 215.686 0 
  627.451 215.686 169.466 
  627.451 215.686 0 
  647.059 215.686 169.466 
  647.059 215.686 0 
  666.667 215.686 169.466 
  666.667 215.686 0 
  686.275 215.686 169.466 
  686.275 215.686 0 
  705.882 215.686 169.466 
  705.882 215.686 0 
  725.49 215.686 169.466 
  725.49 215.686 0 
  745.098 215.686 169.466 
  745.098 215.686 0 
  764.706 215.686 169.466 
  764.706 215.686 0 
  784.314 215.686 169.466 
  784.314 215.686 0 
  803.922 215.686 169.466 
  803.922 215.686 0 
  823.529 215.686 169.466 
  823.529 215.686 0 
  843.137 215.686 169.466 
  843.137 215.686 0 
  862.745 215.686 169.466 
  862.745 215.686 0 
  882.353 215.686 169.466 
  882.353 215.686 0 
  901.961 215.686 169.466 
  901.961 215.686 0 
  921.569 215.686 169.466 
  921.569 215.686 0 
  941.176 215.686 169.466 
  941.176 215.686 0 
  960.784 215.686 169.466 
  960.784 215.686 0 
  980.392 215.686 169.466 
  980.392 215.686 0 
  1000 215.686 169.466 
  1000 215.686 0 
  0 235.294 169.466 
  0 235.294 0 
  19.6078 235.294 169.466 
  19.6078 235.294 0 
  39.2157 235.294 169.466 
  39.2157 235.294 0 
  58.8235 235.294 169.466 
  58.8235 235.294 0 
  78.4314 235.294 169.466 
  78.4314 235.294 0 
  98.0392 235.294 169.466 
  98.0392 235.294 0 
  117.647 235.294 169.466 
  117.647 235.294 0 
  137.255 235.294 169.466 
  137.255 235.294 0 
  156.863 235.294 169.466 
  156.863 235.294 0 
  176.471 235.294 169.466 
  176.471 235.294 0 
  196.078 235.294 169.466 
  196.078 235.294 0 
  215.686 235.294 169.466 
  215.686 235.294 0 
  235.294 235.294 169.466 
  235.294 235.294 0 
  254.902 235.294 169.466 
  254.902 235.294 0 
  274.51 235.294 169.466 
  274.51 235.294 0 
  294.118 235.294 169.466 
  294.118 235.294 0 
  313.725 235.294 169.466 
  313.725 235.294 0 
  333.333 235.294 169.466 
  333.333 235.294 0 
  352.941 235.294 169.466 
  352.941 235.294 0 
  372.549 235.294 169.466 